<?xml version="1.0" encoding="UTF-8"?>

<!-- generated on 2024-04-10 21:02:27 by Eclipse SUMO GUI Version 1.19.0
<configuration xmlns:xsi="http://www.w3.org/2001/XMLSchema-instance" xsi:noNamespaceSchemaLocation="http://sumo.dlr.de/xsd/sumoConfiguration.xsd">

    <input>
        <net-file value="networks/single_intersection/test_light.net.xml"/>
        <route-files value="networks/single_intersection/test_light.rou.xml"/>
        <additional-files value="networks/single_intersection/test_light.add.xml"/>
    </input>

    <output>
        <tripinfo-output value="tripinfo.xml"/>
    </output>

    <traci_server>
        <remote-port value="52072"/>
    </traci_server>

</configuration>
-->

<tripinfos xmlns:xsi="http://www.w3.org/2001/XMLSchema-instance" xsi:noNamespaceSchemaLocation="http://sumo.dlr.de/xsd/tripinfo_file.xsd">
    <tripinfo id="carflowUMD.0" depart="0.00" departLane="E0_0" departPos="5.10" departSpeed="0.00" departDelay="0.00" arrival="17.00" arrivalLane="E2_0" arrivalPos="51.48" arrivalSpeed="9.01" duration="17.00" routeLength="123.04" waitingTime="0.00" waitingCount="0" stopTime="0.00" timeLoss="4.32" rerouteNo="0" devices="tripinfo_carflowUMD.0 routing_carflowUMD.0" vType="car2" speedFactor="1.00" vaporized=""/>
    <tripinfo id="carflowDMR.0" depart="0.00" departLane="-E2_0" departPos="7.10" departSpeed="0.00" departDelay="0.00" arrival="19.00" arrivalLane="E1_0" arrivalPos="72.48" arrivalSpeed="7.84" duration="19.00" routeLength="126.04" waitingTime="0.00" waitingCount="0" stopTime="0.00" timeLoss="5.74" rerouteNo="0" devices="tripinfo_carflowDMR.0 routing_carflowDMR.0" vType="car1" speedFactor="1.00" vaporized=""/>
    <tripinfo id="carflowUMD.1" depart="3.00" departLane="E0_0" departPos="5.10" departSpeed="0.00" departDelay="3.00" arrival="20.00" arrivalLane="E2_0" arrivalPos="51.48" arrivalSpeed="8.89" duration="17.00" routeLength="123.04" waitingTime="0.00" waitingCount="0" stopTime="0.00" timeLoss="4.55" rerouteNo="0" devices="tripinfo_carflowUMD.1 routing_carflowUMD.1" vType="car2" speedFactor="1.00" vaporized=""/>
    <tripinfo id="carflowUMD.2" depart="5.00" departLane="E0_0" departPos="5.10" departSpeed="0.00" departDelay="5.00" arrival="23.00" arrivalLane="E2_1" arrivalPos="51.48" arrivalSpeed="8.50" duration="18.00" routeLength="123.04" waitingTime="0.00" waitingCount="0" stopTime="0.00" timeLoss="5.29" rerouteNo="0" devices="tripinfo_carflowUMD.2 routing_carflowUMD.2" vType="car2" speedFactor="1.00" vaporized=""/>
    <tripinfo id="carflowDMR.1" depart="3.00" departLane="-E2_0" departPos="7.10" departSpeed="0.00" departDelay="3.00" arrival="24.00" arrivalLane="E1_0" arrivalPos="72.48" arrivalSpeed="9.44" duration="21.00" routeLength="126.04" waitingTime="0.00" waitingCount="0" stopTime="0.00" timeLoss="7.47" rerouteNo="0" devices="tripinfo_carflowDMR.1 routing_carflowDMR.1" vType="car1" speedFactor="1.00" vaporized=""/>
    <tripinfo id="carflowUMD.3" depart="6.00" departLane="E0_0" departPos="5.10" departSpeed="0.00" departDelay="6.00" arrival="24.00" arrivalLane="E2_0" arrivalPos="51.48" arrivalSpeed="9.48" duration="18.00" routeLength="123.04" waitingTime="0.00" waitingCount="0" stopTime="0.00" timeLoss="4.95" rerouteNo="0" devices="tripinfo_carflowUMD.3 routing_carflowUMD.3" vType="car2" speedFactor="1.00" vaporized=""/>
    <tripinfo id="carflowUMD.4" depart="10.00" departLane="E0_0" departPos="5.10" departSpeed="0.00" departDelay="10.00" arrival="27.00" arrivalLane="E2_0" arrivalPos="51.48" arrivalSpeed="7.60" duration="17.00" routeLength="123.04" waitingTime="0.00" waitingCount="0" stopTime="0.00" timeLoss="4.36" rerouteNo="0" devices="tripinfo_carflowUMD.4 routing_carflowUMD.4" vType="car2" speedFactor="1.00" vaporized=""/>
    <tripinfo id="carflowDMR.2" depart="7.00" departLane="-E2_0" departPos="7.10" departSpeed="0.00" departDelay="7.00" arrival="29.00" arrivalLane="E1_0" arrivalPos="72.48" arrivalSpeed="9.69" duration="22.00" routeLength="126.04" waitingTime="0.00" waitingCount="0" stopTime="0.00" timeLoss="8.46" rerouteNo="0" devices="tripinfo_carflowDMR.2 routing_carflowDMR.2" vType="car1" speedFactor="1.00" vaporized=""/>
    <tripinfo id="carflowUMD.5" depart="13.00" departLane="E0_0" departPos="5.10" departSpeed="0.00" departDelay="13.00" arrival="31.00" arrivalLane="E2_0" arrivalPos="51.48" arrivalSpeed="8.68" duration="18.00" routeLength="123.04" waitingTime="0.00" waitingCount="0" stopTime="0.00" timeLoss="5.54" rerouteNo="0" devices="tripinfo_carflowUMD.5 routing_carflowUMD.5" vType="car2" speedFactor="1.00" vaporized=""/>
    <tripinfo id="carflowDMR.3" depart="10.00" departLane="-E2_0" departPos="7.10" departSpeed="0.00" departDelay="10.00" arrival="32.00" arrivalLane="E1_0" arrivalPos="72.48" arrivalSpeed="7.43" duration="22.00" routeLength="126.04" waitingTime="0.00" waitingCount="0" stopTime="0.00" timeLoss="8.54" rerouteNo="0" devices="tripinfo_carflowDMR.3 routing_carflowDMR.3" vType="car1" speedFactor="1.00" vaporized=""/>
    <tripinfo id="carflowDMR.4" depart="13.00" departLane="-E2_0" departPos="7.10" departSpeed="0.00" departDelay="13.00" arrival="35.00" arrivalLane="E1_0" arrivalPos="72.48" arrivalSpeed="6.82" duration="22.00" routeLength="126.04" waitingTime="0.00" waitingCount="0" stopTime="0.00" timeLoss="8.60" rerouteNo="0" devices="tripinfo_carflowDMR.4 routing_carflowDMR.4" vType="car1" speedFactor="1.00" vaporized=""/>
    <tripinfo id="carflowUML.0" depart="17.00" departLane="E0_0" departPos="7.10" departSpeed="0.00" departDelay="17.00" arrival="36.00" arrivalLane="E3_0" arrivalPos="61.10" arrivalSpeed="9.59" duration="19.00" routeLength="119.03" waitingTime="0.00" waitingCount="0" stopTime="0.00" timeLoss="6.46" rerouteNo="0" devices="tripinfo_carflowUML.0 routing_carflowUML.0" vType="car1" speedFactor="1.00" vaporized=""/>
    <tripinfo id="carflowDMR.5" depart="17.00" departLane="-E2_0" departPos="7.10" departSpeed="0.00" departDelay="17.00" arrival="38.00" arrivalLane="E1_0" arrivalPos="72.48" arrivalSpeed="8.86" duration="21.00" routeLength="126.04" waitingTime="0.00" waitingCount="0" stopTime="0.00" timeLoss="7.89" rerouteNo="0" devices="tripinfo_carflowDMR.5 routing_carflowDMR.5" vType="car1" speedFactor="1.00" vaporized=""/>
</tripinfos>
